     275
 i =      363, time =      181.500, E =        -1.6870413510
  XX         7.2514377950        7.0334793538        7.2374936877
  CO         7.2514377950        7.0334793538        7.2374936877
  O         8.3625721797       10.1149319801        8.2990075365
  H         7.5131330025       10.6797291416        8.3130297377
  H         9.1916837477       10.6978695590        8.5837361455
  O         3.6041146557        9.5224197501       10.4967973007
  H         2.9404470039        9.6895883376       11.3427629656
  H         3.0438899912        9.6005504218        9.6307834389
  O        12.0169509680        5.5692045162        6.0882566584
  H        12.5428642596        4.9139553296        5.4782575828
  H        11.3568421801        6.0850847063        5.4156314657
  O         3.4330068987       11.7288873939        7.7087747433
  H         2.8347215017       12.3985692059        7.1951381549
  H         3.1835055479       11.9594219763        8.7286382048
  O         4.9036922604       13.4209415911        5.4376533424
  H         5.0344717566       12.9561414891        4.5496959871
  H         3.8790503464       13.5522631974        5.5778436228
  O        10.3765941412       12.3506116135        4.2668509455
  H        10.9367893565       13.2074785492        3.9051002933
  H         9.4102980583       12.7404678690        4.4082579556
  O         5.3313693284        6.5032670496        4.4190822325
  H         4.6138179687        6.4090023042        5.1484295428
  H         4.9895477384        7.0491804432        3.6451140653
  O         0.0392526132        6.9158284694        3.1749402966
  H         0.8147204264        7.4006929774        2.7670129759
  H         0.3993277812        6.1522877055        3.7898562824
  O         9.3885975669        9.0910562992        5.5495545068
  H        10.1946081167        9.6811448299        5.6464935819
  H         9.7915741606        8.3094995918        5.0540775711
  O         3.0827705854        1.5501382287        1.2138066692
  H         3.0783967978        0.9160520181        0.4054152756
  H         3.1481058991        2.4418323681        0.7398927141
  O         2.1379906469        8.6279750300        3.0667035071
  H         2.4664102050        9.1675396782        3.9209438060
  H         2.8461333337        7.9224857289        2.9622830145
  O        11.7846307729       10.7522968192        5.7848713655
  H        11.3061007198       11.3999961385        5.1300419501
  H        12.4596674499       10.1954780802        5.1421320845
  O         4.5949702758       -0.1800422187       11.6033597773
  H         4.8487848018        0.6591418561       11.1148138393
  H         5.3930537009       -0.7573633515       11.3638079422
  O        12.3003434600        2.3621689952       10.7964800403
  H        12.8000709463        2.9184621006       11.4626930793
  H        12.5458233568        2.7543229519        9.8278315139
  O         4.5121252951        6.8747856984        9.3225382466
  H         4.4752647257        7.4396198191       10.2013330598
  H         4.3086432659        5.8954098982        9.4134672792
  O        12.9280036656        6.8636926757        8.4259501950
  H        13.9080293938        6.5827864440        8.2515607797
  H        12.4068817289        6.6632847037        7.5253455490
  O         9.6713981437       12.9482887113        9.3109853825
  H         9.8883301646       12.2650338509       10.0565622996
  H         9.7735304712       13.8973658678        9.6458724765
  O         4.0104906396        6.7676134081       12.5739570188
  H         4.0595793238        7.6982225104       13.0195090744
  H         3.2054210838        6.9009766800       11.9603268448
  O         2.6593004181       13.2220963795        2.6888687171
  H         3.5675168068       12.7465670771        2.5587455761
  H         2.5204665176       13.7504510718        1.7887235477
  O         5.7688112300       12.9836299112        2.8974398502
  H         5.7894383293       13.9365716583        2.5545624751
  H         6.0561823602       12.3296038438        2.1618165946
  O         1.6142268903        7.2197613804       11.3309174690
  H         0.6389280636        6.9879230768       11.5596345769
  H         1.5012954206        7.8832652100       10.5878812158
  O        12.9588635266        0.7205751201        5.2852498181
  H        13.5089655511        1.1494858633        6.0444607054
  H        12.2528758399        0.1744279877        5.7693535408
  O         0.5572854443       13.4640995735        8.7143930012
  H        -0.2324053227       13.7921016832        9.2035896505
  H         1.0805632275       12.9483314294        9.3699275716
  O         9.5527921353        1.4102737449        6.6902031011
  H        10.2323470610        0.7397455550        6.9896358067
  H         8.8332360291        1.7002872382        7.3769797058
  O         3.6365740221        7.4604765311        6.4561190706
  H         3.8797573402        7.4199990994        7.4671061359
  H         2.6290283858        7.5119349836        6.3635234032
  O         9.8375090658        1.3767205062       10.6687024538
  H         9.4205141001        1.8664446044       11.4469957655
  H        10.8224743005        1.6513296366       10.7966639434
  O         8.0323599874        7.5789881499       -0.3627292618
  H         8.1216855831        8.5730531152       -0.4672535671
  H         8.9475608195        7.1736195016       -0.2610836917
  O        -0.1496888199       12.6607564130       13.0421277385
  H         0.8338661347       12.9932911525       13.2407867129
  H        -0.7314904874       12.7191218959       13.8924441277
  O         7.2946184543       11.7580752771        0.9448836407
  H         7.4670401441       11.3845280830        0.0136228377
  H         8.1572608986       11.9081108887        1.4377479381
  O        14.0462522880        3.3359455280       12.9852292243
  H        13.5126985214        4.1982562358       13.1325175780
  H        13.8904555567        2.6326893105       13.7148896570
  O         7.5332874403        7.6096693561       10.6724080305
  H         7.0894236533        6.8788473466       11.1755650405
  H         7.3392807732        8.4656111452       11.2122859939
  O         6.1721318618        1.7220626106        4.5724280948
  H         5.7204332519        0.8669452051        4.8824739793
  H         5.8654478271        1.9799396914        3.6710996227
  O         0.3814997271        4.8391075523        1.6790980001
  H         1.3165326267        4.7847178362        1.2224351809
  H         0.1717880897        5.7465768876        2.1167542981
  O        11.4390691706        3.2942985251        2.0849881699
  H        11.6454425010        4.1483985137        1.5478502851
  H        10.3933951211        3.1025258694        1.8581668640
  O        12.6587128135        3.4721462836        4.3931587588
  H        12.1520926061        3.4874008443        3.4772210178
  H        13.0233427214        2.5105324802        4.5470605722
  O         2.8326716382        1.5122994329        8.3334575707
  H         3.8435885271        1.4922696540        8.5064116947
  H         2.3525383775        0.7159731212        8.7685767096
  O         8.7486543756        3.5528478138       12.0888182157
  H         8.6712075291        4.0375942139       11.1432705488
  H         8.0377746017        4.0144820262       12.6591221969
  O        13.1737076953        3.8321024253        8.6530786349
  H        13.5583939205        3.0219227854        8.1792366802
  H        13.8963384535        4.5458155889        8.5329204367
  O         3.6405834922        5.7670680947        1.8701035039
  H         4.4857329447        6.4018723884        1.7086017642
  H         3.5307867864        5.1339102952        1.0790638567
  O         2.9959187946        4.1545772463       13.4122652890
  H         2.0310485751        4.1416974305       13.0662467441
  H         3.4594742553        4.9639424235       12.9359919040
  O         7.3631168082       11.0024659768        4.8944281393
  H         7.6578218326       11.9853245332        4.9038705726
  H         8.1026707043       10.3728860191        5.2436597969
  O         7.1215139154        3.6875738920        6.3043391449
  H         8.1481054242        3.6709661042        6.3370752783
  H         6.8728988558        2.8521058984        5.7643782798
  O         5.6244304333        7.6820315370        1.3836643971
  H         6.4605477761        7.5602240720        0.9517168552
  H         5.7061096473        8.4470492402        2.0701732743
  O         3.0831227389       10.6130685139        1.0495486189
  H         3.5676378311        9.9752131146        0.3944469133
  H         3.4388112784       10.4225867527        2.0117409094
  O         1.8019252296        9.2105729626        8.5914560586
  H         1.1794361845        9.9860017747        8.2890305058
  H         1.6958949854        8.4429322948        7.8830244786
  O         9.7127225586        4.7399805826        8.0525194870
  H        10.5162880443        4.0937802350        8.0058369805
  H         9.9724770148        5.5741987116        8.6581088261
  O         5.4405849813        0.8332336833        8.7963634858
  H         5.3741455128       -0.1165067906        8.4393421124
  H         6.4389583913        1.1079856367        8.9076343442
  O        12.8345019926        8.0453319910       11.6165517026
  H        12.1702678807        8.1401017078       12.3452562920
  H        12.5650038492        8.6641838564       10.7873372110
  O         0.5455774695        2.1554744308        7.0163589174
  H         1.4431244085        1.8843519411        7.4128884739
  H         0.8566556641        2.8895380634        6.3521486411
  O         8.9490969628       10.1919029052       13.1765798858
  H         9.6410807619       10.3602570042       12.4581538074
  H         9.0554185205       10.8065682791       13.9630993821
  O         2.8911315176       13.0848004336       13.5466500585
  H         3.0823528591       12.0457630899       13.7781867777
  H         3.6729750018       13.3719320222       12.9084663282
  O         6.0702301124       10.0000119456       11.3878703762
  H         5.2057110045        9.6342462459       11.0430120630
  H         6.1179302443       10.9788354692       11.1274424875
  O        10.7206881837        6.8427494597        4.1232765963
  H        10.0609465316        6.2046961502        3.6404463864
  H        11.4831933442        7.2839922699        3.5076365616
  O        12.2186895238        9.1903437178        9.3606997599
  H        12.6431284607        9.8735979499        8.7439458179
  H        12.6329328670        8.3606460250        9.0003174940
  O         8.0229993885        2.1814239880        8.8371836576
  H         7.5969444657        3.0994812568        9.0463929337
  H         8.6581076818        1.8878230411        9.5587705371
  O         9.7650080992        3.5845311698        4.7989917347
  H         9.5454762528        2.6550550869        5.0455996311
  H        10.5754092502        4.0189227776        5.1353896542
  O        10.1366201803        6.9326008791        9.1520659523
  H         9.8225381106        7.6275379965        9.8096940773
  H        11.1590321383        6.9536986142        9.3660664330
  O         0.6806284822       11.1044977167        2.7116362334
  H         1.1234270011       12.0658085634        2.7518670854
  H         1.2236764541       10.4544321143        2.0977857348
  O         5.9461755041        1.3736482541        1.5674694636
  H         6.3472205562        1.3315126014        0.6298243270
  H         4.9364713325        1.4188217362        1.6773292644
  O         6.3630631074        5.5870487145       12.6097929748
  H         6.8558861147        6.2957514190       13.1261932419
  H         5.3616481535        5.7034079478       12.7276443546
  O         1.3971194044       10.5886754620       12.2514587746
  H         1.3847001493        9.6932283555       12.8164200671
  H         0.4948656553       11.0578803019       12.4624108802
  O         6.6004384952        4.2948036730        9.5976641319
  H         5.6783234150        3.9733965513        9.3927876607
  H         6.5985493697        4.7491579261       10.4672279609
  O         3.7981080407        4.1905215450        8.9895864161
  H         3.3186272658        3.3291662484        9.0978553216
  H         4.1293729443        4.1782516190        7.9995746754
  O        10.6376360107       11.0920544966       10.9637717730
  H        11.1112972691       12.0059285105       11.1010954592
  H        11.2741380442       10.6438173532       10.3067475894
  O         1.6389373684        5.5305240611        8.9656442240
  H         1.6635042901        5.9374567262        9.9035815140
  H         2.5034972130        4.9733349602        8.9296194321
  O         8.0278269333        5.8359828308        4.0963239232
  H         7.1211152276        5.9860622943        3.6563415843
  H         8.1012194804        4.8230681159        4.4483433383
  O        13.8411165755       10.8791375454        7.8603167972
  H        14.1226538059       11.7926927540        8.1927574081
  H        13.1256981133       10.8307737820        7.1671827390
  O         3.2539269199        3.6149856266        3.7744544244
  H         3.3316962685        4.4352050503        3.1064190804
  H         3.0534731173        2.7394779787        3.2340286094
  O        13.3528981881        9.3483263944        4.2355589898
  H        13.8853556460       10.0863994072        3.7417768933
  H        13.5899728666        8.3882072951        3.8987273941
  O         4.6285655582        9.1547162544       13.4984699808
  H         5.4103603405        9.6414780209       13.0469514377
  H         4.9821782073        8.6434464579       14.3068770241
  O         2.7395421010       12.3088828729       10.1118921718
  H         3.3599596226       12.9101580456       10.6758992851
  H         2.4798301710       11.6405343418       10.8543144568
  O        11.2477602664       13.1526566596        7.1469245041
  H        11.8119001854       12.4314860524        6.8338068305
  H        10.6723624513       12.9776486235        7.9684881311
  O        12.6416451214        5.3625009430       11.1181491640
  H        12.5203560224        4.9442277112       10.2137609214
  H        12.9890135431        6.3334667603       11.1040566227
  O         8.8106383297        2.3161979720        2.1375377868
  H         8.8777719884        2.5786284486        3.1221298574
  H         7.8835652139        2.0286953802        1.9678744786
  O         6.5594797566       12.5811619626        7.4533961976
  H         7.4859513860       12.9276306137        7.1959555144
  H         5.8899155630       12.9160650617        6.7890041143
  O         5.5057944393       10.0004547431        6.7917800657
  H         6.1367440560       10.5633869139        6.1247488829
  H         4.7309071441       10.6389948473        7.1830183947
  O        11.6505569470        0.5413412977        3.1340445115
  H        11.6307645192        1.3112789413        2.4188537698
  H        12.1865821117        0.8471307656        3.9622622917
  O         5.3190852342        9.6371258938        3.3080339420
  H         4.6368087485       10.0641753557        3.8555852673
  H         6.1386346762       10.0858279553        3.7330890332
  O         4.6688774108        4.5466757951        6.5095358552
  H         4.0883173980        4.5430284264        5.6850047113
  H         5.5473154219        4.0651581040        6.3182912704
  O         0.7751961918        7.2281139078        6.3573456497
  H         0.8127926518        6.2320863522        6.2545975474
  H         0.0501000181        7.6436913169        5.7996424542
  O         3.2605618490       10.3350623193        4.9217525578
  H         3.6954742890       10.0967140282        5.8184526433
  H         2.6574452436       11.1144440706        5.0201742449
  O         2.1329624179       13.1957023878        5.6877972426
  H         1.3575747948       13.6269426845        6.1999312940
  H         1.9658915864       13.3581432251        4.6952194578
  O        11.4458196930        8.9791654675        1.7561651914
  H        12.2692337018        9.4386631625        2.1018333199
  H        10.8301044395        9.7488958105        1.5585890380
  O         6.8956563521       12.5022637520       10.3578466406
  H         7.7632526234       12.9277022743       10.4599756672
  H         6.7859287385       12.3910507914        9.3188646588
  O         8.1707777938       13.7923340163        4.9869643157
  H         7.2816506221       14.1413030603        4.8638821134
  H         8.8853641724       14.5509225228        5.1972956106
  O        11.1015061472        4.4075203224       13.1244926131
  H        10.3278771855        3.9200864567       12.6628422412
  H        11.7855311726        4.7892159354       12.3423175593
  O        10.0523805277       11.6274655580        1.5470218106
  H         9.7838881649       11.8162565919        2.5247668369
  H        11.0857513582       11.8883217557        1.3854003180
  O        10.8848939950        7.3006435864       13.6625834139
  H        11.2325283695        6.3905936178       13.8353651575
  H        11.1335769789        7.8138579488       14.5661871623
  O        12.6723917133       12.6014834687        1.4457864795
  H        12.3517173585       13.4138399957        2.0579357033
  H        13.3771827845       12.0311446849        1.9985943122
  O        12.3154224786       13.5358850131       10.9280127985
  H        12.3145140718       14.5596038248       11.1192549989
  H        12.8142710250       13.0835810999       11.8031990433
  O         1.1836562813        4.5019119024        5.3552380844
  H         0.3240151472        3.9844650896        5.0060460998
  H         2.0385402541        4.1205885832        4.8525843119
